ITEM: TIMESTEP
4000
ITEM: NUMBER OF ATOMS
2
ITEM: BOX BOUNDS pp pp pp
-12.437 12.437
-12.437 12.437
-12.437 12.437
ITEM: ATOMS id type xu yu zu quatw quati quatj quatk c_diameter[1] c_diameter[2] c_diameter[3] vx vy vz angmomx angmomy angmomz mol
1 1 4.8551 0.249186 -0.870479 0.72637 -0.237716 -0.258619 -0.590757 3.1589 3.1589 3.1589 -0.00438471 -0.00057217 -0.00151066 -0.111205 -0.0407851 0.0310453 1 
2 1 -1.53364 6.64356 3.81144 -0.315464 -0.723623 0.557813 0.256313 3.1589 3.1589 3.1589 0.00398489 0.00227005 0.00324707 0.0729974 0.0207887 0.0459199 2 
